<?xml version="1.0" encoding="ISO-8859-1"?>
<modeling>
 <generator>
  <i name="program" type="string">vasp </i>
  <i name="version" type="string">5.4.1  </i>
  <i name="subversion" type="string">05Feb16 (build Jun 10 2020 15:32:20) complex                          parallel </i>
  <i name="platform" type="string">IFC91_ompi </i>
  <i name="date" type="string">2020 06 19 </i>
  <i name="time" type="string">08:54:23 </i>
 </generator>
 <incar>
  <i type="string" name="PREC">normal</i>
  <i name="EDIFFG">     -0.01000000</i>
  <v type="int" name="KPOINT_BSE">    -1     0     0     0</v>
 </incar>
 <kpoints>
  <generation param="Auto">
   <i name="subdivisionlength">      5.00000000 </i>
   <v type="int" name="divisions">       1        1        1 </v>
   <v name="usershift">      0.00000000       0.00000000       0.00000000 </v>
   <v name="genvec1">      1.00000000       0.00000000       0.00000000 </v>
   <v name="genvec2">      0.00000000       1.00000000       0.00000000 </v>
   <v name="genvec3">      0.00000000       0.00000000       1.00000000 </v>
   <v name="shift">      0.00000000       0.00000000       0.00000000 </v>
  </generation>
  <varray name="kpointlist" >
   <v>       0.00000000       0.00000000       0.00000000 </v>
  </varray>
  <varray name="weights" >
   <v>       1.00000000 </v>
  </varray>
 </kpoints>
 <parameters>
  <separator name="general" >
   <i type="string" name="SYSTEM">unknown system</i>
   <i type="logical" name="LCOMPAT"> F  </i>
  </separator>
  <separator name="electronic" >
   <i type="string" name="PREC">normal</i>
   <i name="ENMAX">    245.34500000</i>
   <i name="ENAUG">    322.06900000</i>
   <i name="EDIFF">      0.00010000</i>
   <i type="int" name="IALGO">    38</i>
   <i type="int" name="IWAVPR">    10</i>
   <i type="int" name="NBANDS">    24</i>
   <i name="NELECT">     32.00000000</i>
   <i type="int" name="TURBO">     0</i>
   <i type="int" name="IRESTART">     0</i>
   <i type="int" name="NREBOOT">     0</i>
   <i type="int" name="NMIN">     0</i>
   <i name="EREF">      0.00000000</i>
   <separator name="electronic smearing" >
    <i type="int" name="ISMEAR">     1</i>
    <i name="SIGMA">      0.20000000</i>
    <i name="KSPACING">      0.50000000</i>
    <i type="logical" name="KGAMMA"> T  </i>
   </separator>
   <separator name="electronic projectors" >
    <i type="logical" name="LREAL"> F  </i>
    <v name="ROPT">      0.00000000</v>
    <i type="int" name="LMAXPAW">  -100</i>
    <i type="int" name="LMAXMIX">     2</i>
    <i type="logical" name="NLSPLINE"> F  </i>
   </separator>
   <separator name="electronic startup" >
    <i type="int" name="ISTART">     0</i>
    <i type="int" name="ICHARG">     2</i>
    <i type="int" name="INIWAV">     1</i>
   </separator>
   <separator name="electronic spin" >
    <i type="int" name="ISPIN">     1</i>
    <i type="logical" name="LNONCOLLINEAR"> F  </i>
    <v name="MAGMOM">      1.00000000      1.00000000      1.00000000      1.00000000      1.00000000      1.00000000      1.00000000      1.00000000</v>
    <i name="NUPDOWN">     -1.00000000</i>
    <i type="logical" name="LSORBIT"> F  </i>
    <v name="SAXIS">      0.00000000      0.00000000      1.00000000</v>
    <i type="logical" name="LSPIRAL"> F  </i>
    <v name="QSPIRAL">      0.00000000      0.00000000      0.00000000</v>
    <i type="logical" name="LZEROZ"> F  </i>
   </separator>
   <separator name="electronic exchange-correlation" >
    <i type="logical" name="LASPH"> F  </i>
    <i type="logical" name="LMETAGGA"> F  </i>
   </separator>
   <separator name="electronic convergence" >
    <i type="int" name="NELM">    60</i>
    <i type="int" name="NELMDL">    -5</i>
    <i type="int" name="NELMIN">     2</i>
    <i name="ENINI">    245.34500000</i>
    <separator name="electronic convergence detail" >
     <i type="logical" name="LDIAG"> T  </i>
     <i type="logical" name="LSUBROT"> F  </i>
     <i name="WEIMIN">      0.00000000</i>
     <i name="EBREAK">      0.00000104</i>
     <i name="DEPER">      0.30000000</i>
     <i type="int" name="NRMM">     4</i>
     <i name="TIME">      0.40000000</i>
    </separator>
   </separator>
   <separator name="electronic mixer" >
    <i name="AMIX">      0.40000000</i>
    <i name="BMIX">      1.00000000</i>
    <i name="AMIN">      0.10000000</i>
    <i name="AMIX_MAG">      1.60000000</i>
    <i name="BMIX_MAG">      1.00000000</i>
    <separator name="electronic mixer details" >
     <i type="int" name="IMIX">     4</i>
     <i type="logical" name="MIXFIRST"> F  </i>
     <i type="int" name="MAXMIX">   -45</i>
     <i name="WC">    100.00000000</i>
     <i type="int" name="INIMIX">     1</i>
     <i type="int" name="MIXPRE">     1</i>
     <i type="int" name="MREMOVE">     5</i>
    </separator>
   </separator>
   <separator name="electronic dipolcorrection" >
    <i type="logical" name="LDIPOL"> F  </i>
    <i type="logical" name="LMONO"> F  </i>
    <i type="int" name="IDIPOL">     0</i>
    <i name="EPSILON">      1.00000000</i>
    <v name="DIPOL">   -100.00000000   -100.00000000   -100.00000000</v>
    <i name="EFIELD">      0.00000000</i>
   </separator>
  </separator>
  <separator name="grids" >
   <i type="int" name="NGX">    24</i>
   <i type="int" name="NGY">    24</i>
   <i type="int" name="NGZ">    24</i>
   <i type="int" name="NGXF">    48</i>
   <i type="int" name="NGYF">    48</i>
   <i type="int" name="NGZF">    48</i>
   <i type="logical" name="ADDGRID"> F  </i>
  </separator>
  <separator name="ionic" >
   <i type="int" name="NSW">     0</i>
   <i type="int" name="IBRION">    -1</i>
   <i type="int" name="ISIF">     2</i>
   <i name="PSTRESS">      0.00000000</i>
   <i name="EDIFFG">     -0.01000000</i>
   <i type="int" name="NFREE">     0</i>
   <i name="POTIM">      0.50000000</i>
   <i name="SMASS">     -3.00000000</i>
   <i name="SCALEE">      1.00000000</i>
  </separator>
  <separator name="ionic md" >
   <i name="TEBEG">      0.00010000</i>
   <i name="TEEND">      0.00010000</i>
   <i type="int" name="NBLOCK">     1</i>
   <i type="int" name="KBLOCK">     1</i>
   <i type="int" name="NPACO">   256</i>
   <i name="APACO">     16.00000000</i>
  </separator>
  <separator name="symmetry" >
   <i type="int" name="ISYM">     2</i>
   <i name="SYMPREC">      0.00001000</i>
  </separator>
  <separator name="dos" >
   <i type="logical" name="LORBIT"> T  </i>
   <v name="RWIGS">     -1.00000000</v>
   <i type="int" name="NEDOS">   301</i>
   <i name="EMIN">     10.00000000</i>
   <i name="EMAX">    -10.00000000</i>
   <i name="EFERMI">      0.00000000</i>
  </separator>
  <separator name="writing" >
   <i type="int" name="NWRITE">     2</i>
   <i type="logical" name="LWAVE"> T  </i>
   <i type="logical" name="LCHARG"> T  </i>
   <i type="logical" name="LPARD"> F  </i>
   <i type="logical" name="LVTOT"> F  </i>
   <i type="logical" name="LVHAR"> F  </i>
   <i type="logical" name="LELF"> F  </i>
   <i type="logical" name="LOPTICS"> F  </i>
   <v name="STM">      0.00000000      0.00000000      0.00000000      0.00000000      0.00000000      0.00000000      0.00000000</v>
  </separator>
  <separator name="performance" >
   <i type="int" name="NPAR">     4</i>
   <i type="int" name="NSIM">     4</i>
   <i type="int" name="NBLK">    -1</i>
   <i type="logical" name="LPLANE"> T  </i>
   <i type="logical" name="LSCALAPACK"> T  </i>
   <i type="logical" name="LSCAAWARE"> F  </i>
   <i type="logical" name="LSCALU"> F  </i>
   <i type="logical" name="LASYNC"> F  </i>
   <i type="logical" name="LORBITALREAL"> F  </i>
  </separator>
  <separator name="miscellaneous" >
   <i type="int" name="IDIOT">     3</i>
   <i type="logical" name="LMUSIC"> F  </i>
   <v name="POMASS">     28.08500000</v>
   <v name="DARWINR">      0.00000000</v>
   <v name="DARWINV">      1.00000000</v>
   <i type="logical" name="LCORR"> T  </i>
  </separator>
  <i type="logical" name="GGA_COMPAT"> T  </i>
  <i type="logical" name="LBERRY"> F  </i>
  <i type="int" name="ICORELEVEL">     0</i>
  <i type="logical" name="LDAU"> F  </i>
  <i type="int" name="I_CONSTRAINED_M">     0</i>
  <separator name="electronic exchange-correlation" >
   <i type="string" name="GGA">--</i>
   <i type="int" name="VOSKOWN">     0</i>
   <i type="logical" name="LHFCALC"> F  </i>
   <i type="string" name="PRECFOCK"></i>
   <i type="logical" name="LSYMGRAD"> F  </i>
   <i type="logical" name="LHFONE"> F  </i>
   <i type="logical" name="LRHFCALC"> F  </i>
   <i type="logical" name="LTHOMAS"> F  </i>
   <i type="logical" name="LMODELHF"> F  </i>
   <i name="ENCUT4O">     -1.00000000</i>
   <i type="int" name="EXXOEP">     0</i>
   <i type="int" name="FOURORBIT">     0</i>
   <i name="AEXX">      0.00000000</i>
   <i name="HFALPHA">      0.00000000</i>
   <i name="MCALPHA">      0.00000000</i>
   <i name="ALDAX">      1.00000000</i>
   <i name="AGGAX">      1.00000000</i>
   <i name="ALDAC">      1.00000000</i>
   <i name="AGGAC">      1.00000000</i>
   <i type="int" name="NKREDX">     1</i>
   <i type="int" name="NKREDY">     1</i>
   <i type="int" name="NKREDZ">     1</i>
   <i type="logical" name="SHIFTRED"> F  </i>
   <i type="logical" name="ODDONLY"> F  </i>
   <i type="logical" name="EVENONLY"> F  </i>
   <i type="int" name="LMAXFOCK">     0</i>
   <i type="int" name="NMAXFOCKAE">     0</i>
   <i type="logical" name="LFOCKAEDFT"> F  </i>
   <i name="HFSCREEN">      0.00000000</i>
   <i name="HFSCREENC">      0.00000000</i>
   <i type="int" name="NBANDSGWLOW">     0</i>
  </separator>
  <separator name="vdW DFT" >
   <i type="logical" name="LUSE_VDW"> F  </i>
   <i name="Zab_VDW">     -0.84910000</i>
   <i name="PARAM1">      0.12340000</i>
   <i name="PARAM2">      1.00000000</i>
   <i name="PARAM3">      0.00000000</i>
  </separator>
  <separator name="model GW" >
   <i type="int" name="MODEL_GW">     0</i>
   <i name="MODEL_EPS0">     12.01369721</i>
   <i name="MODEL_ALPHA">      1.00000000</i>
  </separator>
  <separator name="linear response parameters" >
   <i type="logical" name="LEPSILON"> F  </i>
   <i type="logical" name="LRPA"> F  </i>
   <i type="logical" name="LNABLA"> F  </i>
   <i type="logical" name="LVEL"> F  </i>
   <i type="int" name="KINTER">     0</i>
   <i name="CSHIFT">      0.10000000</i>
   <i name="OMEGAMAX">     -1.00000000</i>
   <i name="DEG_THRESHOLD">      0.00200000</i>
  </separator>
  <separator name="orbital magnetization" >
   <i type="logical" name="NUCIND"> F  </i>
   <v name="MAGPOS">      0.00000000      0.00000000      0.00000000</v>
   <i type="logical" name="LNICSALL"> T  </i>
   <i type="logical" name="ORBITALMAG"> F  </i>
   <i type="logical" name="LMAGBLOCH"> F  </i>
   <i type="logical" name="LCHIMAG"> F  </i>
   <i type="logical" name="LGAUGE"> T  </i>
   <i type="int" name="MAGATOM">     0</i>
   <v name="MAGDIPOL">      0.00000000      0.00000000      0.00000000</v>
   <v name="AVECCONST">      0.00000000      0.00000000      0.00000000</v>
  </separator>
  <separator name="response functions" >
   <i type="logical" name="LADDER"> F  </i>
   <i type="logical" name="LFXC"> F  </i>
   <i type="logical" name="LHARTREE"> T  </i>
   <i type="int" name="IBSE">     0</i>
   <v type="int" name="KPOINT">    -1     0     0     0</v>
   <i type="logical" name="LTCTE"> F  </i>
   <i type="logical" name="LTETE"> F  </i>
   <i type="logical" name="LTRIPLET"> F  </i>
   <i type="logical" name="LFXCEPS"> F  </i>
   <i type="logical" name="LFXHEG"> F  </i>
   <i type="int" name="NATURALO">     0</i>
   <i type="logical" name="L2ORDER"> F  </i>
   <i type="logical" name="LUSEW"> F  </i>
   <i name="ENCUTGW">     -2.00000000</i>
   <i name="ENCUTGWSOFT">     -2.00000000</i>
   <i name="ENCUTLF">     -1.00000000</i>
   <i type="int" name="LMAXMP2">    -1</i>
   <i name="SCISSOR">      0.00000000</i>
   <i type="int" name="NOMEGA">     0</i>
   <i type="int" name="NOMEGAR">     0</i>
   <i type="int" name="NBANDSGW">    -1</i>
   <i type="int" name="NBANDSO">    -1</i>
   <i type="int" name="NBANDSV">    -1</i>
   <i type="int" name="NELM">     1</i>
   <i type="int" name="NELMHF">     1</i>
   <i type="int" name="DIM">     3</i>
   <i type="int" name="ANTIRES">     0</i>
   <i name="OMEGAMAX">    -30.00000000</i>
   <i name="OMEGAMIN">    -30.00000000</i>
   <i name="OMEGATL">   -200.00000000</i>
   <i type="int" name="OMEGAGRID">     0</i>
   <i name="CSHIFT">     -0.10000000</i>
   <i type="logical" name="SELFENERGY"> F  </i>
   <i type="logical" name="LSPECTRAL"> F  </i>
   <i type="logical" name="LSPECTRALGW"> F  </i>
   <i type="logical" name="LSINGLES"> F  </i>
   <i type="logical" name="LFERMIGW"> F  </i>
   <i type="logical" name="ODDONLYGW"> F  </i>
   <i type="logical" name="EVENONLYGW"> F  </i>
   <i type="int" name="NKREDLFX">     1</i>
   <i type="int" name="NKREDLFY">     1</i>
   <i type="int" name="NKREDLFZ">     1</i>
   <i type="int" name="MAXMEM">  1800</i>
   <i type="int" name="TELESCOPE">     0</i>
   <i type="int" name="TAUPAR">     1</i>
   <i type="int" name="OMEGAPAR">    -1</i>
   <i name="LAMBDA">      1.00000000</i>
  </separator>
  <separator name="External order field" >
   <i name="OFIELD_KAPPA">      0.00000000</i>
   <v name="OFIELD_K">      0.00000000      0.00000000      0.00000000</v>
   <i name="OFIELD_Q6_NEAR">      0.00000000</i>
   <i name="OFIELD_Q6_FAR">      0.00000000</i>
   <i name="OFIELD_A">      0.00000000</i>
  </separator>
 </parameters>
 <atominfo>
  <atoms>       8 </atoms>
  <types>       1 </types>
  <array name="atoms" >
   <dimension dim="1">ion</dimension>
   <field type="string">element</field>
   <field type="int">atomtype</field>
   <set>
    <rc><c>Si</c><c>   1</c></rc>
    <rc><c>Si</c><c>   1</c></rc>
    <rc><c>Si</c><c>   1</c></rc>
    <rc><c>Si</c><c>   1</c></rc>
    <rc><c>Si</c><c>   1</c></rc>
    <rc><c>Si</c><c>   1</c></rc>
    <rc><c>Si</c><c>   1</c></rc>
    <rc><c>Si</c><c>   1</c></rc>
   </set>
  </array>
  <array name="atomtypes" >
   <dimension dim="1">type</dimension>
   <field type="int">atomspertype</field>
   <field type="string">element</field>
   <field>mass</field>
   <field>valence</field>
   <field type="string">pseudopotential</field>
   <set>
    <rc><c>   8</c><c>Si</c><c>     28.08500000</c><c>      4.00000000</c><c> PAW_PBE Si 05Jan2001                   </c></rc>
   </set>
  </array>
 </atominfo>
 <structure name="initialpos" >
  <crystal>
   <varray name="basis" >
    <v>       5.43090000       0.00000000       0.00000000 </v>
    <v>       0.00000000       5.43090000       0.00000000 </v>
    <v>       0.00000000       0.00000000       5.43090000 </v>
   </varray>
   <i name="volume">    160.18262943 </i>
   <varray name="rec_basis" >
    <v>       0.18413154       0.00000000       0.00000000 </v>
    <v>       0.00000000       0.18413154       0.00000000 </v>
    <v>       0.00000000       0.00000000       0.18413154 </v>
   </varray>
  </crystal>
  <varray name="positions" >
   <v>       0.00000000       0.00000000       0.00000000 </v>
   <v>       0.25000000       0.25000000       0.25000000 </v>
   <v>       0.00000000       0.50000000       0.50000000 </v>
   <v>       0.75000000       0.25000000       0.75000000 </v>
   <v>       0.50000000       0.00000000       0.50000000 </v>
   <v>       0.25000000       0.75000000       0.75000000 </v>
   <v>       0.50000000       0.50000000       0.00000000 </v>
   <v>       0.75000000       0.75000000       0.25000000 </v>
  </varray>
 </structure>
 <calculation>
  <scstep>
   <time name="dav">    0.03    0.03</time>
   <time name="total">    0.05    0.05</time>
   <energy>
    <i name="alphaZ">     13.44987921 </i>
    <i name="ewald">   -914.10262382 </i>
    <i name="hartreedc">    -44.03418131 </i>
    <i name="XCdc">    -74.41512175 </i>
    <i name="pawpsdc">    263.82083246 </i>
    <i name="pawaedc">   -123.07410713 </i>
    <i name="eentropy">      0.01162235 </i>
    <i name="bandstr">     80.86256025 </i>
    <i name="atom">    824.49028925 </i>
    <i name="e_fr_energy">     27.00914951 </i>
    <i name="e_wo_entrp">     26.99752716 </i>
    <i name="e_0_energy">     27.00527539 </i>
   </energy>
  </scstep>
  <scstep>
   <time name="dav">    0.03    0.03</time>
   <time name="total">    0.03    0.03</time>
   <energy>
    <i name="e_fr_energy">    -31.11392804 </i>
    <i name="e_wo_entrp">    -31.14388601 </i>
    <i name="e_0_energy">    -31.12391403 </i>
   </energy>
  </scstep>
  <scstep>
   <time name="dav">    0.03    0.03</time>
   <time name="total">    0.03    0.03</time>
   <energy>
    <i name="e_fr_energy">    -34.45538674 </i>
    <i name="e_wo_entrp">    -34.49039874 </i>
    <i name="e_0_energy">    -34.46705740 </i>
   </energy>
  </scstep>
  <scstep>
   <time name="dav">    0.03    0.03</time>
   <time name="total">    0.03    0.03</time>
   <energy>
    <i name="e_fr_energy">    -34.51236988 </i>
    <i name="e_wo_entrp">    -34.54715784 </i>
    <i name="e_0_energy">    -34.52396587 </i>
   </energy>
  </scstep>
  <scstep>
   <time name="dav">    0.04    0.04</time>
   <time name="total">    0.05    0.05</time>
   <energy>
    <i name="e_fr_energy">    -34.51501397 </i>
    <i name="e_wo_entrp">    -34.54980149 </i>
    <i name="e_0_energy">    -34.52660981 </i>
   </energy>
  </scstep>
  <scstep>
   <time name="dav">    0.02    0.02</time>
   <time name="total">    0.05    0.05</time>
   <energy>
    <i name="e_fr_energy">    -33.42061498 </i>
    <i name="e_wo_entrp">    -33.45567731 </i>
    <i name="e_0_energy">    -33.43230242 </i>
   </energy>
  </scstep>
  <scstep>
   <time name="dav">    0.02    0.02</time>
   <time name="total">    0.05    0.05</time>
   <energy>
    <i name="e_fr_energy">    -32.94583589 </i>
    <i name="e_wo_entrp">    -33.05953400 </i>
    <i name="e_0_energy">    -32.98373526 </i>
   </energy>
  </scstep>
  <scstep>
   <time name="dav">    0.02    0.02</time>
   <time name="total">    0.05    0.05</time>
   <energy>
    <i name="e_fr_energy">    -33.01801860 </i>
    <i name="e_wo_entrp">    -33.09690176 </i>
    <i name="e_0_energy">    -33.04431298 </i>
   </energy>
  </scstep>
  <scstep>
   <time name="dav">    0.02    0.02</time>
   <time name="total">    0.05    0.05</time>
   <energy>
    <i name="e_fr_energy">    -33.01898952 </i>
    <i name="e_wo_entrp">    -33.08961117 </i>
    <i name="e_0_energy">    -33.04253007 </i>
   </energy>
  </scstep>
  <scstep>
   <time name="dav">    0.02    0.02</time>
   <time name="total">    0.04    0.04</time>
   <energy>
    <i name="e_fr_energy">    -33.01914209 </i>
    <i name="e_wo_entrp">    -33.08808768 </i>
    <i name="e_0_energy">    -33.04212395 </i>
   </energy>
  </scstep>
  <scstep>
   <time name="dav">    0.02    0.02</time>
   <time name="total">    0.03    0.03</time>
   <energy>
    <i name="alphaZ">     13.44987921 </i>
    <i name="ewald">   -914.10262382 </i>
    <i name="hartreedc">    -69.85712894 </i>
    <i name="XCdc">    -70.60568900 </i>
    <i name="pawpsdc">    306.01035464 </i>
    <i name="pawaedc">   -166.41962770 </i>
    <i name="eentropy">      0.06946253 </i>
    <i name="bandstr">     43.94593679 </i>
    <i name="atom">    824.49028925 </i>
    <i name="e_fr_energy">    -33.01914704 </i>
    <i name="e_wo_entrp">    -33.08860957 </i>
    <i name="e_0_energy">    -33.04230122 </i>
   </energy>
  </scstep>
  <structure>
   <crystal>
    <varray name="basis" >
     <v>       5.43090000       0.00000000       0.00000000 </v>
     <v>       0.00000000       5.43090000       0.00000000 </v>
     <v>       0.00000000       0.00000000       5.43090000 </v>
    </varray>
    <i name="volume">    160.18262943 </i>
    <varray name="rec_basis" >
     <v>       0.18413154       0.00000000       0.00000000 </v>
     <v>       0.00000000       0.18413154       0.00000000 </v>
     <v>       0.00000000       0.00000000       0.18413154 </v>
    </varray>
   </crystal>
   <varray name="positions" >
    <v>       0.00000000       0.00000000       0.00000000 </v>
    <v>       0.25000000       0.25000000       0.25000000 </v>
    <v>       0.00000000       0.50000000       0.50000000 </v>
    <v>       0.75000000       0.25000000       0.75000000 </v>
    <v>       0.50000000       0.00000000       0.50000000 </v>
    <v>       0.25000000       0.75000000       0.75000000 </v>
    <v>       0.50000000       0.50000000       0.00000000 </v>
    <v>       0.75000000       0.75000000       0.25000000 </v>
   </varray>
  </structure>
  <varray name="forces" >
   <v>       0.00000000       0.00000000       0.00000000 </v>
   <v>      -0.00000000       0.00000000      -0.00000000 </v>
   <v>       0.00000000      -0.00000000       0.00000000 </v>
   <v>      -0.00000000       0.00000000      -0.00000000 </v>
   <v>       0.00000000       0.00000000       0.00000000 </v>
   <v>       0.00000000       0.00000000      -0.00000000 </v>
   <v>       0.00000000      -0.00000000       0.00000000 </v>
   <v>      -0.00000000       0.00000000      -0.00000000 </v>
  </varray>
  <varray name="stress" >
   <v>     108.69357988       0.00000000       0.00000000 </v>
   <v>      -0.00000000     108.69357988      -0.00000000 </v>
   <v>      -0.00000000      -0.00000000     108.69357988 </v>
  </varray>
  <energy>
   <i name="e_fr_energy">    -33.01914704 </i>
   <i name="e_wo_entrp">    -33.04230122 </i>
   <i name="e_0_energy">      0.06946253 </i>
  </energy>
  <time name="totalsc">    0.63    0.63</time>
  <eigenvalues>
   <array>
    <dimension dim="1">band</dimension>
    <dimension dim="2">kpoint</dimension>
    <dimension dim="3">spin</dimension>
    <field>eigene</field>
    <field>occ</field>
    <set>
     <set comment="spin 1">
      <set comment="kpoint 1">
       <r>   -5.8550    1.0000 </r>
       <r>   -1.6870    1.0000 </r>
       <r>   -1.6870    1.0000 </r>
       <r>   -1.6870    1.0000 </r>
       <r>   -1.6870    1.0000 </r>
       <r>   -1.6870    1.0000 </r>
       <r>   -1.6870    1.0000 </r>
       <r>    3.2417    1.0000 </r>
       <r>    3.2417    1.0000 </r>
       <r>    3.2417    1.0000 </r>
       <r>    3.2417    1.0000 </r>
       <r>    3.2417    1.0000 </r>
       <r>    3.2417    1.0000 </r>
       <r>    6.1721    1.0088 </r>
       <r>    6.1721    1.0088 </r>
       <r>    6.1721    1.0088 </r>
       <r>    6.7836   -0.0044 </r>
       <r>    6.7836   -0.0044 </r>
       <r>    6.7836   -0.0044 </r>
       <r>    6.7836   -0.0044 </r>
       <r>    6.7836   -0.0044 </r>
       <r>    6.7836   -0.0044 </r>
       <r>    8.6095   -0.0000 </r>
       <r>    8.6095   -0.0000 </r>
      </set>
     </set>
    </set>
   </array>
  </eigenvalues>
  <separator name="orbital magnetization" >
   <v name="MAGDIPOLOUT">      0.00000000      0.00000000      0.00000000</v>
  </separator>
  <dos>
   <i name="efermi">      6.34920095 </i>
   <total>
    <array>
     <dimension dim="1">gridpoints</dimension>
     <dimension dim="2">spin</dimension>
     <field>energy</field>
     <field>total</field>
     <field>integrated</field>
     <set>
      <set comment="spin 1">
       <r>    -7.8550     0.0000     0.0000 </r>
       <r>    -7.7935     0.0000     0.0000 </r>
       <r>    -7.7319     0.0000     0.0000 </r>
       <r>    -7.6704     0.0000     0.0000 </r>
       <r>    -7.6088     0.0000     0.0000 </r>
       <r>    -7.5473     0.0000     0.0000 </r>
       <r>    -7.4858    -0.0000    -0.0000 </r>
       <r>    -7.4242    -0.0000    -0.0000 </r>
       <r>    -7.3627    -0.0000    -0.0000 </r>
       <r>    -7.3011    -0.0000    -0.0000 </r>
       <r>    -7.2396    -0.0000    -0.0000 </r>
       <r>    -7.1780    -0.0000    -0.0000 </r>
       <r>    -7.1165    -0.0000    -0.0000 </r>
       <r>    -7.0549    -0.0000    -0.0000 </r>
       <r>    -6.9934    -0.0000    -0.0000 </r>
       <r>    -6.9318    -0.0000    -0.0000 </r>
       <r>    -6.8703    -0.0000    -0.0000 </r>
       <r>    -6.8087    -0.0000    -0.0000 </r>
       <r>    -6.7472    -0.0000    -0.0000 </r>
       <r>    -6.6856    -0.0000    -0.0000 </r>
       <r>    -6.6241    -0.0000    -0.0000 </r>
       <r>    -6.5625    -0.0001    -0.0000 </r>
       <r>    -6.5010    -0.0007    -0.0000 </r>
       <r>    -6.4394    -0.0039    -0.0003 </r>
       <r>    -6.3779    -0.0176    -0.0014 </r>
       <r>    -6.3163    -0.0632    -0.0053 </r>
       <r>    -6.2548    -0.1754    -0.0161 </r>
       <r>    -6.1932    -0.3547    -0.0379 </r>
       <r>    -6.1317    -0.4362    -0.0647 </r>
       <r>    -6.0701     0.0350    -0.0626 </r>
       <r>    -6.0086     1.6236     0.0373 </r>
       <r>    -5.9470     4.3538     0.3053 </r>
       <r>    -5.8855     7.1532     0.7456 </r>
       <r>    -5.8239     8.3526     1.2597 </r>
       <r>    -5.7624     7.1294     1.6985 </r>
       <r>    -5.7008     4.3220     1.9645 </r>
       <r>    -5.6393     1.6001     2.0630 </r>
       <r>    -5.5778     0.0250     2.0645 </r>
       <r>    -5.5162    -0.4372     2.0376 </r>
       <r>    -5.4547    -0.3528     2.0159 </r>
       <r>    -5.3931    -0.1738     2.0052 </r>
       <r>    -5.3316    -0.0625     2.0013 </r>
       <r>    -5.2700    -0.0173     2.0003 </r>
       <r>    -5.2085    -0.0038     2.0000 </r>
       <r>    -5.1469    -0.0007     2.0000 </r>
       <r>    -5.0854    -0.0001     2.0000 </r>
       <r>    -5.0238    -0.0000     2.0000 </r>
       <r>    -4.9623    -0.0000     2.0000 </r>
       <r>    -4.9007    -0.0000     2.0000 </r>
       <r>    -4.8392    -0.0000     2.0000 </r>
       <r>    -4.7776    -0.0000     2.0000 </r>
       <r>    -4.7161    -0.0000     2.0000 </r>
       <r>    -4.6545    -0.0000     2.0000 </r>
       <r>    -4.5930    -0.0000     2.0000 </r>
       <r>    -4.5314     0.0000     2.0000 </r>
       <r>    -4.4699     0.0000     2.0000 </r>
       <r>    -4.4083     0.0000     2.0000 </r>
       <r>    -4.3468     0.0000     2.0000 </r>
       <r>    -4.2852     0.0000     2.0000 </r>
       <r>    -4.2237     0.0000     2.0000 </r>
       <r>    -4.1621     0.0000     2.0000 </r>
       <r>    -4.1006     0.0000     2.0000 </r>
       <r>    -4.0390     0.0000     2.0000 </r>
       <r>    -3.9775     0.0000     2.0000 </r>
       <r>    -3.9159     0.0000     2.0000 </r>
       <r>    -3.8544     0.0000     2.0000 </r>
       <r>    -3.7928     0.0000     2.0000 </r>
       <r>    -3.7313     0.0000     2.0000 </r>
       <r>    -3.6698     0.0000     2.0000 </r>
       <r>    -3.6082     0.0000     2.0000 </r>
       <r>    -3.5467     0.0000     2.0000 </r>
       <r>    -3.4851     0.0000     2.0000 </r>
       <r>    -3.4236     0.0000     2.0000 </r>
       <r>    -3.3620     0.0000     2.0000 </r>
       <r>    -3.3005    -0.0000     2.0000 </r>
       <r>    -3.2389    -0.0000     2.0000 </r>
       <r>    -3.1774    -0.0000     2.0000 </r>
       <r>    -3.1158    -0.0000     2.0000 </r>
       <r>    -3.0543    -0.0000     2.0000 </r>
       <r>    -2.9927    -0.0000     2.0000 </r>
       <r>    -2.9312    -0.0000     2.0000 </r>
       <r>    -2.8696    -0.0000     2.0000 </r>
       <r>    -2.8081    -0.0000     2.0000 </r>
       <r>    -2.7465    -0.0000     2.0000 </r>
       <r>    -2.6850    -0.0000     2.0000 </r>
       <r>    -2.6234    -0.0000     2.0000 </r>
       <r>    -2.5619    -0.0000     2.0000 </r>
       <r>    -2.5003    -0.0000     2.0000 </r>
       <r>    -2.4388    -0.0001     2.0000 </r>
       <r>    -2.3772    -0.0010     1.9999 </r>
       <r>    -2.3157    -0.0068     1.9995 </r>
       <r>    -2.2541    -0.0363     1.9973 </r>
       <r>    -2.1926    -0.1548     1.9877 </r>
       <r>    -2.1310    -0.5193     1.9558 </r>
       <r>    -2.0695    -1.3287     1.8740 </r>
       <r>    -2.0079    -2.4079     1.7258 </r>
       <r>    -1.9464    -2.3165     1.5832 </r>
       <r>    -1.8848     2.0985     1.7124 </r>
       <r>    -1.8233    13.7923     2.5613 </r>
       <r>    -1.7617    31.2199     4.4828 </r>
       <r>    -1.7002    46.2885     7.3318 </r>
       <r>    -1.6387    49.4864    10.3776 </r>
       <r>    -1.5771    38.5929    12.7529 </r>
       <r>    -1.5156    20.9016    14.0394 </r>
       <r>    -1.4540     6.1570    14.4183 </r>
       <r>    -1.3925    -1.1726    14.3462 </r>
       <r>    -1.3309    -2.6624    14.1823 </r>
       <r>    -1.2694    -1.8021    14.0714 </r>
       <r>    -1.2078    -0.8052    14.0218 </r>
       <r>    -1.1463    -0.2682    14.0053 </r>
       <r>    -1.0847    -0.0695    14.0011 </r>
       <r>    -1.0232    -0.0143    14.0002 </r>
       <r>    -0.9616    -0.0024    14.0000 </r>
       <r>    -0.9001    -0.0003    14.0000 </r>
       <r>    -0.8385    -0.0000    14.0000 </r>
       <r>    -0.7770    -0.0000    14.0000 </r>
       <r>    -0.7154    -0.0000    14.0000 </r>
       <r>    -0.6539    -0.0000    14.0000 </r>
       <r>    -0.5923    -0.0000    14.0000 </r>
       <r>    -0.5308    -0.0000    14.0000 </r>
       <r>    -0.4692    -0.0000    14.0000 </r>
       <r>    -0.4077    -0.0000    14.0000 </r>
       <r>    -0.3461     0.0000    14.0000 </r>
       <r>    -0.2846     0.0000    14.0000 </r>
       <r>    -0.2230     0.0000    14.0000 </r>
       <r>    -0.1615     0.0000    14.0000 </r>
       <r>    -0.0999     0.0000    14.0000 </r>
       <r>    -0.0384     0.0000    14.0000 </r>
       <r>     0.0232     0.0000    14.0000 </r>
       <r>     0.0847     0.0000    14.0000 </r>
       <r>     0.1463     0.0000    14.0000 </r>
       <r>     0.2078     0.0000    14.0000 </r>
       <r>     0.2693     0.0000    14.0000 </r>
       <r>     0.3309     0.0000    14.0000 </r>
       <r>     0.3924     0.0000    14.0000 </r>
       <r>     0.4540     0.0000    14.0000 </r>
       <r>     0.5155     0.0000    14.0000 </r>
       <r>     0.5771     0.0000    14.0000 </r>
       <r>     0.6386     0.0000    14.0000 </r>
       <r>     0.7002     0.0000    14.0000 </r>
       <r>     0.7617     0.0000    14.0000 </r>
       <r>     0.8233     0.0000    14.0000 </r>
       <r>     0.8848     0.0000    14.0000 </r>
       <r>     0.9464     0.0000    14.0000 </r>
       <r>     1.0079     0.0000    14.0000 </r>
       <r>     1.0695     0.0000    14.0000 </r>
       <r>     1.1310     0.0000    14.0000 </r>
       <r>     1.1926     0.0000    14.0000 </r>
       <r>     1.2541     0.0000    14.0000 </r>
       <r>     1.3157     0.0000    14.0000 </r>
       <r>     1.3772     0.0000    14.0000 </r>
       <r>     1.4388     0.0000    14.0000 </r>
       <r>     1.5003     0.0000    14.0000 </r>
       <r>     1.5619     0.0000    14.0000 </r>
       <r>     1.6234    -0.0000    14.0000 </r>
       <r>     1.6850    -0.0000    14.0000 </r>
       <r>     1.7465    -0.0000    14.0000 </r>
       <r>     1.8081    -0.0000    14.0000 </r>
       <r>     1.8696    -0.0000    14.0000 </r>
       <r>     1.9312    -0.0000    14.0000 </r>
       <r>     1.9927    -0.0000    14.0000 </r>
       <r>     2.0543    -0.0000    14.0000 </r>
       <r>     2.1158    -0.0000    14.0000 </r>
       <r>     2.1773    -0.0000    14.0000 </r>
       <r>     2.2389    -0.0000    14.0000 </r>
       <r>     2.3004    -0.0000    14.0000 </r>
       <r>     2.3620    -0.0000    14.0000 </r>
       <r>     2.4235    -0.0000    14.0000 </r>
       <r>     2.4851    -0.0001    14.0000 </r>
       <r>     2.5466    -0.0009    13.9999 </r>
       <r>     2.6082    -0.0059    13.9996 </r>
       <r>     2.6697    -0.0321    13.9976 </r>
       <r>     2.7313    -0.1394    13.9890 </r>
       <r>     2.7928    -0.4768    13.9597 </r>
       <r>     2.8544    -1.2483    13.8828 </r>
       <r>     2.9159    -2.3357    13.7391 </r>
       <r>     2.9775    -2.4307    13.5895 </r>
       <r>     3.0390     1.5136    13.6826 </r>
       <r>     3.1006    12.6087    14.4587 </r>
       <r>     3.1621    29.8063    16.2932 </r>
       <r>     3.2237    45.4409    19.0900 </r>
       <r>     3.2852    49.7828    22.1541 </r>
       <r>     3.3468    39.8245    24.6052 </r>
       <r>     3.4083    22.2842    25.9768 </r>
       <r>     3.4699     7.0548    26.4110 </r>
       <r>     3.5314    -0.8546    26.3584 </r>
       <r>     3.5930    -2.6721    26.1939 </r>
       <r>     3.6545    -1.8909    26.0775 </r>
       <r>     3.7161    -0.8673    26.0242 </r>
       <r>     3.7776    -0.2950    26.0060 </r>
       <r>     3.8392    -0.0779    26.0012 </r>
       <r>     3.9007    -0.0164    26.0002 </r>
       <r>     3.9623    -0.0028    26.0000 </r>
       <r>     4.0238    -0.0004    26.0000 </r>
       <r>     4.0853    -0.0000    26.0000 </r>
       <r>     4.1469    -0.0000    26.0000 </r>
       <r>     4.2084    -0.0000    26.0000 </r>
       <r>     4.2700    -0.0000    26.0000 </r>
       <r>     4.3315    -0.0000    26.0000 </r>
       <r>     4.3931    -0.0000    26.0000 </r>
       <r>     4.4546    -0.0000    26.0000 </r>
       <r>     4.5162    -0.0000    26.0000 </r>
       <r>     4.5777    -0.0000    26.0000 </r>
       <r>     4.6393    -0.0000    26.0000 </r>
       <r>     4.7008    -0.0000    26.0000 </r>
       <r>     4.7624    -0.0000    26.0000 </r>
       <r>     4.8239    -0.0000    26.0000 </r>
       <r>     4.8855    -0.0000    26.0000 </r>
       <r>     4.9470    -0.0000    26.0000 </r>
       <r>     5.0086    -0.0000    26.0000 </r>
       <r>     5.0701    -0.0000    26.0000 </r>
       <r>     5.1317    -0.0000    26.0000 </r>
       <r>     5.1932    -0.0000    26.0000 </r>
       <r>     5.2548    -0.0000    26.0000 </r>
       <r>     5.3163    -0.0000    26.0000 </r>
       <r>     5.3779    -0.0000    26.0000 </r>
       <r>     5.4394    -0.0001    26.0000 </r>
       <r>     5.5010    -0.0009    25.9999 </r>
       <r>     5.5625    -0.0059    25.9996 </r>
       <r>     5.6241    -0.0292    25.9978 </r>
       <r>     5.6856    -0.1158    25.9907 </r>
       <r>     5.7472    -0.3586    25.9686 </r>
       <r>     5.8087    -0.8340    25.9172 </r>
       <r>     5.8703    -1.3113    25.8365 </r>
       <r>     5.9318    -0.7924    25.7878 </r>
       <r>     5.9933     2.4460    25.9383 </r>
       <r>     6.0549     9.4260    26.5185 </r>
       <r>     6.1164    18.3235    27.6463 </r>
       <r>     6.1780    24.4192    29.1492 </r>
       <r>     6.2395    23.6473    30.6047 </r>
       <r>     6.3011    16.4140    31.6149 </r>
       <r>     6.3626     7.0630    32.0496 </r>
       <r>     6.4242    -0.2054    32.0370 </r>
       <r>     6.4857    -3.6945    31.8096 </r>
       <r>     6.5473    -2.6211    31.6483 </r>
       <r>     6.6088     4.8451    31.9465 </r>
       <r>     6.6704    19.6757    33.1575 </r>
       <r>     6.7319    37.6374    35.4740 </r>
       <r>     6.7935    49.2096    38.5028 </r>
       <r>     6.8550    46.8187    41.3844 </r>
       <r>     6.9166    32.1763    43.3648 </r>
       <r>     6.9781    14.6222    44.2648 </r>
       <r>     7.0397     2.5244    44.4202 </r>
       <r>     7.1012    -2.2236    44.2833 </r>
       <r>     7.1628    -2.4537    44.1323 </r>
       <r>     7.2243    -1.3850    44.0470 </r>
       <r>     7.2859    -0.5499    44.0132 </r>
       <r>     7.3474    -0.1662    44.0030 </r>
       <r>     7.4090    -0.0395    44.0005 </r>
       <r>     7.4705    -0.0075    44.0001 </r>
       <r>     7.5321    -0.0011    44.0000 </r>
       <r>     7.5936    -0.0001    44.0000 </r>
       <r>     7.6552    -0.0000    44.0000 </r>
       <r>     7.7167    -0.0000    44.0000 </r>
       <r>     7.7783    -0.0000    44.0000 </r>
       <r>     7.8398    -0.0000    44.0000 </r>
       <r>     7.9013    -0.0002    44.0000 </r>
       <r>     7.9629    -0.0013    43.9999 </r>
       <r>     8.0244    -0.0076    43.9994 </r>
       <r>     8.0860    -0.0347    43.9973 </r>
       <r>     8.1475    -0.1249    43.9896 </r>
       <r>     8.2091    -0.3475    43.9682 </r>
       <r>     8.2706    -0.7056    43.9248 </r>
       <r>     8.3322    -0.8744    43.8710 </r>
       <r>     8.3937     0.0501    43.8741 </r>
       <r>     8.4553     3.2003    44.0710 </r>
       <r>     8.5168     8.6440    44.6031 </r>
       <r>     8.5784    14.2589    45.4807 </r>
       <r>     8.6399    16.7052    46.5088 </r>
       <r>     8.7015    14.3064    47.3894 </r>
       <r>     8.7630     8.7076    47.9253 </r>
       <r>     8.8246     3.2471    48.1252 </r>
       <r>     8.8861     0.0700    48.1295 </r>
       <r>     8.9477    -0.8725    48.0758 </r>
       <r>     9.0092    -0.7093    48.0321 </r>
       <r>     9.0708    -0.3508    48.0105 </r>
       <r>     9.1323    -0.1265    48.0027 </r>
       <r>     9.1939    -0.0352    48.0006 </r>
       <r>     9.2554    -0.0077    48.0001 </r>
       <r>     9.3170    -0.0014    48.0000 </r>
       <r>     9.3785    -0.0002    48.0000 </r>
       <r>     9.4401    -0.0000    48.0000 </r>
       <r>     9.5016    -0.0000    48.0000 </r>
       <r>     9.5632    -0.0000    48.0000 </r>
       <r>     9.6247    -0.0000    48.0000 </r>
       <r>     9.6863    -0.0000    48.0000 </r>
       <r>     9.7478    -0.0000    48.0000 </r>
       <r>     9.8094    -0.0000    48.0000 </r>
       <r>     9.8709    -0.0000    48.0000 </r>
       <r>     9.9324     0.0000    48.0000 </r>
       <r>     9.9940     0.0000    48.0000 </r>
       <r>    10.0555     0.0000    48.0000 </r>
       <r>    10.1171     0.0000    48.0000 </r>
       <r>    10.1786     0.0000    48.0000 </r>
       <r>    10.2402     0.0000    48.0000 </r>
       <r>    10.3017     0.0000    48.0000 </r>
       <r>    10.3633     0.0000    48.0000 </r>
       <r>    10.4248     0.0000    48.0000 </r>
       <r>    10.4864     0.0000    48.0000 </r>
       <r>    10.5479     0.0000    48.0000 </r>
       <r>    10.6095     0.0000    48.0000 </r>
      </set>
     </set>
    </array>
   </total>
  </dos>
 </calculation>
 <structure name="finalpos" >
  <crystal>
   <varray name="basis" >
    <v>       5.43090000       0.00000000       0.00000000 </v>
    <v>       0.00000000       5.43090000       0.00000000 </v>
    <v>       0.00000000       0.00000000       5.43090000 </v>
   </varray>
   <i name="volume">    160.18262943 </i>
   <varray name="rec_basis" >
    <v>       0.18413154       0.00000000       0.00000000 </v>
    <v>       0.00000000       0.18413154       0.00000000 </v>
    <v>       0.00000000       0.00000000       0.18413154 </v>
   </varray>
  </crystal>
  <varray name="positions" >
   <v>       0.00000000       0.00000000       0.00000000 </v>
   <v>       0.25000000       0.25000000       0.25000000 </v>
   <v>       0.00000000       0.50000000       0.50000000 </v>
   <v>       0.75000000       0.25000000       0.75000000 </v>
   <v>       0.50000000       0.00000000       0.50000000 </v>
   <v>       0.25000000       0.75000000       0.75000000 </v>
   <v>       0.50000000       0.50000000       0.00000000 </v>
   <v>       0.75000000       0.75000000       0.25000000 </v>
  </varray>
 </structure>
</modeling>
